LAMMPS data file Created by LigParGen - (Written by Leela S. Dodda)

      17 atoms
      16 bonds
      27 angles
      31 dihedrals
       9 impropers
 
      17 atom types
      16 bond types
      27 angle types
      31 dihedral types
       9 improper types
 
   -1.855640    48.144360 xlo xhi
    0.108620    50.108620 ylo yhi
   -3.068620    46.931380 zlo zhi

Masses

       1      1.008  
       2     12.011  
       3     12.011  
       4     12.011  
       5     12.011  
       6      1.008  
       7      1.008  
       8     12.011  
       9      1.008  
      10      1.008  
      11     15.999  
      12      1.008  
      13     12.011  
      14      1.008  
      15      1.008  
      16      1.008  
      17      1.008  

Pair Coeffs 

       1      0.030  2.5000000 
       2      0.076  3.5500000 
       3      0.066  3.5000000 
       4      0.076  3.5500000 
       5      0.066  3.5000000 
       6      0.030  2.5000000 
       7      0.030  2.5000000 
       8      0.070  3.5500000 
       9      0.030  2.5000000 
      10      0.030  2.5000000 
      11      0.210  2.9600000 
      12      0.030  2.5000000 
      13      0.066  3.5000000 
      14      0.030  2.5000000 
      15      0.030  2.5000000 
      16      0.030  2.5000000 
      17      0.030  2.5000000 

Bond Coeffs 

       1   340.0000     1.0800 
       2   317.0000     1.5100 
       3   549.0000     1.3400 
       4   268.0000     1.5290 
       5   340.0000     1.0900 
       6   340.0000     1.0900 
       7   317.0000     1.5220 
       8   340.0000     1.0900 
       9   340.0000     1.0900 
      10   570.0000     1.2290 
      11   340.0000     1.0900 
      12   317.0000     1.5100 
      13   340.0000     1.0800 
      14   340.0000     1.0900 
      15   340.0000     1.0900 
      16   340.0000     1.0900 

Angle Coeffs 

       1     35.000    117.000
       2     35.000    120.000
       3     63.000    111.100
       4     35.000    109.500
       5     35.000    109.500
       6     63.000    111.100
       7     37.500    110.700
       8     37.500    110.700
       9     80.000    120.400
      10     35.000    115.000
      11     70.000    124.000
      12     35.000    120.000
      13     35.000    109.500
      14     35.000    109.500
      15     35.000    109.500
      16     35.000    117.000
      17     33.000    107.800
      18     33.000    107.800
      19     33.000    107.800
      20     37.500    110.700
      21     33.000    107.800
      22     70.000    124.000
      23     35.000    109.500
      24     33.000    107.800
      25     37.500    110.700
      26     35.000    109.500
      27     35.000    123.000

Dihedral Coeffs  

       1      0.000     -8.000      0.000      0.000 
       2     -2.060     -0.313      0.315      0.000 
       3      0.000      0.000      0.000      0.000 
       4      0.000     14.000      0.000      0.000 
       5      0.000      0.000     -0.372      0.000 
       6      0.000      0.000      0.318      0.000 
       7      0.000      0.000      0.318      0.000 
       8      0.000      0.000     -0.372      0.000 
       9      0.000      0.000     -0.100      0.000 
      10      0.000      0.000     -0.372      0.000 
      11      0.000      0.000     -0.372      0.000 
      12      0.000      0.000      0.318      0.000 
      13      0.000      0.000      0.366      0.000 
      14      0.000     14.000      0.000      0.000 
      15      0.000     14.000      0.000      0.000 
      16      0.000      0.000      0.318      0.000 
      17      0.000      0.000      0.000      0.000 
      18      0.000      0.000      0.000      0.000 
      19      0.000      0.000      0.318      0.000 
      20      0.000      0.000      0.300      0.000 
      21      0.000      0.000     -0.100      0.000 
      22      0.000      0.000      0.300      0.000 
      23      0.000      0.000      0.000      0.000 
      24      0.346      0.405     -0.904      0.000 
      25      0.000      0.000      0.366      0.000 
      26      0.000      0.000      0.360      0.000 
      27      0.000      0.000     -0.372      0.000 
      28      0.000      0.000      0.360      0.000 
      29      0.000      0.000      0.300      0.000 
      30      0.000      0.000      0.300      0.000 
      31      0.000     14.000      0.000      0.000 

Improper Coeffs 

       1      2.500      -1       2 
       2      0.000      -1       2 
       3      0.000      -1       2 
       4      0.000      -1       2 
       5      0.000      -1       2 
       6     10.500      -1       2 
       7      2.500      -1       2 
       8      0.000      -1       2 
       9      0.000      -1       2 

Atoms 

     1      1      1 0.13370000    1.000  1.00000  0.00000
     2      1      2 -0.20340000   -0.087  1.00000  0.00000
     3      1      3 -0.13590000   -0.762  1.00000  1.34112
     4      1      4 -0.18450000   -0.746  0.99852 -1.16785
     5      1      5 -0.25080000   -0.428  2.26368  2.12767
     6      1      6 0.11000000   -0.431  0.11437  1.89823
     7      1      7 0.11000000   -1.849  0.90793  1.22926
     8      1      8 0.26010000   -1.091  2.29179  3.48422
     9      1      9 0.12350000   -0.755  3.15576  1.58218
    10      1     10 0.12350000    0.653  2.34023  2.29005
    11      1     11 -0.39070000   -1.856  1.43109  3.90669
    12      1     12 0.10210000   -0.841  3.17003  4.10368
    13      1     13 -0.20690000   -0.073  0.99684 -2.50027
    14      1     14 0.13640000   -1.833  0.99972 -1.16910
    15      1     15 0.09090000   -0.372  0.10862 -3.06610
    16      1     16 0.09090000   -0.372  1.88222 -3.06862
    17      1     17 0.09090000    1.018  0.99460 -2.41341

Bonds 

     1      1      2      1
     2      2      3      2
     3      3      4      2
     4      4      5      3
     5      5      6      3
     6      6      7      3
     7      7      8      5
     8      8      9      5
     9      9     10      5
    10     10     11      8
    11     11     12      8
    12     12     13      4
    13     13     14      4
    14     14     15     13
    15     15     16     13
    16     16     17     13

Angles 

     1      1      1      2      3
     2      2      1      2      4
     3      3      2      3      5
     4      4      2      3      6
     5      5      2      3      7
     6      6      3      5      8
     7      7      3      5      9
     8      8      3      5     10
     9      9      5      8     11
    10     10      5      8     12
    11     11      2      4     13
    12     12      2      4     14
    13     13      4     13     15
    14     14      4     13     16
    15     15      4     13     17
    16     16     13      4     14
    17     17     15     13     16
    18     18      9      5     10
    19     19     16     13     17
    20     20      5      3      7
    21     21     15     13     17
    22     22      3      2      4
    23     23      8      5     10
    24     24      6      3      7
    25     25      5      3      6
    26     26      8      5      9
    27     27     11      8     12

Dihedrals

     1      1      5      3      2      1 
     2      2      8      5      3      2 
     3      3     11      8      5      3 
     4      4     13      4      2      1 
     5      5     15     13      4      2 
     6      6     15     13      4     14 
     7      7     17     13      4     14 
     8      8     17     13      4      2 
     9      9      8      5      3      6 
    10     10      6      3      2      4 
    11     11     16     13      4      2 
    12     12      7      3      2      1 
    13     13     10      5      3      2 
    14     14     14      4      2      3 
    15     15     13      4      2      3 
    16     16     16     13      4     14 
    17     17     12      8      5      3 
    18     18     11      8      5     10 
    19     19      6      3      2      1 
    20     20      9      5      3      6 
    21     21      8      5      3      7 
    22     22     10      5      3      7 
    23     23     11      8      5      9 
    24     24      5      3      2      4 
    25     25      9      5      3      2 
    26     26     12      8      5     10 
    27     27      7      3      2      4 
    28     28     12      8      5      9 
    29     29      9      5      3      7 
    30     30     10      5      3      6 
    31     31     14      4      2      1 

Impropers

     1      1      2      1      3      4 
     2      2      3      2      5      6 
     3      3      3      2      5      7 
     4      4      5      9      3      8 
     5      5      5     10      3      8 
     6      6      8     11     12      5 
     7      7      4      2     13     14 
     8      8     13      4     15     16 
     9      9     13     17      4     15 
