LAMMPS data file Created by LigParGen - (Written by Leela S. Dodda)

      25 atoms
      25 bonds
      40 angles
      57 dihedrals
      13 impropers
 
      25 atom types
      25 bond types
      40 angle types
      57 dihedral types
      13 improper types
 
   -3.964190    46.035810 xlo xhi
   -0.765170    49.234830 ylo yhi
   -3.763470    46.236530 zlo zhi

Masses

       1      1.008  
       2     15.999  
       3     12.011  
       4     12.011  
       5     15.999  
       6     12.011  
       7     14.007  
       8      1.008  
       9     12.011  
      10      1.008  
      11      1.008  
      12     12.011  
      13     12.011  
      14      1.008  
      15     12.011  
      16      1.008  
      17     12.011  
      18      1.008  
      19     12.011  
      20      1.008  
      21     14.007  
      22      1.008  
      23      1.008  
      24      1.008  
      25      1.008  

Pair Coeffs 

       1      0.000  0.0000000 
       2      0.170  3.1200000 
       3      0.070  3.5500000 
       4      0.066  3.5000000 
       5      0.210  2.9600000 
       6      0.066  3.5000000 
       7      0.170  3.3000000 
       8      0.030  2.5000000 
       9      0.070  3.5500000 
      10      0.030  2.5000000 
      11      0.030  2.5000000 
      12      0.070  3.5500000 
      13      0.070  3.5500000 
      14      0.030  2.4200000 
      15      0.070  3.5500000 
      16      0.030  2.4200000 
      17      0.070  3.5500000 
      18      0.030  2.4200000 
      19      0.070  3.5500000 
      20      0.030  2.4200000 
      21      0.170  3.3000000 
      22      0.000  0.0000000 
      23      0.000  0.0000000 
      24      0.000  0.0000000 
      25      0.000  0.0000000 

Bond Coeffs 

       1   553.0000     0.9450 
       2   450.0000     1.3640 
       3   317.0000     1.5220 
       4   570.0000     1.2290 
       5   268.0000     1.5290 
       6   382.0000     1.4480 
       7   340.0000     1.0900 
       8   317.0000     1.5100 
       9   340.0000     1.0900 
      10   340.0000     1.0900 
      11   469.0000     1.4000 
      12   469.0000     1.4000 
      13   367.0000     1.0800 
      14   469.0000     1.4000 
      15   367.0000     1.0800 
      16   469.0000     1.4000 
      17   367.0000     1.0800 
      18   469.0000     1.4000 
      19   367.0000     1.0800 
      20   481.0000     1.3400 
      21   434.0000     1.0100 
      22   434.0000     1.0100 
      23   434.0000     1.0100 
      24   434.0000     1.0100 
      25   469.0000     1.4000 

Angle Coeffs 

       1     35.000    113.000
       2     70.000    108.000
       3     80.000    121.000
       4     63.000    111.100
       5     80.000    111.200
       6     35.000    109.500
       7     63.000    114.000
       8     37.500    110.700
       9     37.500    110.700
      10     70.000    120.000
      11     70.000    120.000
      12     35.000    120.000
      13     63.000    120.000
      14     35.000    120.000
      15     63.000    120.000
      16     35.000    120.000
      17     63.000    120.000
      18     35.000    120.000
      19     70.000    120.000
      20     35.000    116.000
      21     35.000    116.000
      22     35.000    109.500
      23     35.000    109.500
      24     35.000    120.000
      25     35.000    109.500
      26     63.000    120.000
      27     43.600    106.400
      28     56.200    109.470
      29     33.000    107.800
      30     80.000    120.400
      31     35.000    120.000
      32     35.000    120.000
      33     37.500    110.700
      34     35.000    109.500
      35     35.000    109.500
      36     63.000    120.000
      37     63.000    120.000
      38     43.600    106.400
      39     35.000    120.000
      40     70.000    120.000

Dihedral Coeffs  

       1      1.500      5.500      0.000      0.000 
       2      1.000      0.546      0.450      0.000 
       3     -1.697     -0.456      0.585      0.000 
       4      0.000      0.000      0.000      0.000 
       5      0.000      7.250      0.000      0.000 
       6      0.000      7.250      0.000      0.000 
       7      0.000      7.250      0.000      0.000 
       8      0.000      2.030      0.000      0.000 
       9     -0.190     -0.417      0.418      0.000 
      10      0.000      7.250      0.000      0.000 
      11      0.000      0.000      0.000      0.000 
      12      0.000      0.000      0.000      0.000 
      13      0.000      0.000      0.000      0.000 
      14      0.000      7.250      0.000      0.000 
      15      0.000      7.250      0.000      0.000 
      16      0.000      5.500      0.000      0.000 
      17      0.000      7.250      0.000      0.000 
      18      0.000      7.250      0.000      0.000 
      19      0.000      2.030      0.000      0.000 
      20      0.000      7.250      0.000      0.000 
      21      0.000      0.000      0.000      0.000 
      22     -1.013     -0.709      0.473      0.000 
      23      0.000      0.000      0.300      0.000 
      24      0.000      7.250      0.000      0.000 
      25      0.000      0.000      0.000      0.000 
      26      0.000      0.000     -0.100      0.000 
      27      0.000      7.250      0.000      0.000 
      28      0.000      7.250      0.000      0.000 
      29      0.000      0.000      0.000      0.000 
      30      0.000      7.250      0.000      0.000 
      31     -0.190     -0.417      0.418      0.000 
      32      0.000      7.250      0.000      0.000 
      33      0.000      0.000      0.400      0.000 
      34      0.000      7.250      0.000      0.000 
      35      0.000      0.000      0.000      0.000 
      36     -0.190     -0.417      0.418      0.000 
      37      0.000      0.000      0.462      0.000 
      38     -0.800      0.000      0.000      0.000 
      39     -1.013     -0.709      0.473      0.000 
      40      0.000      7.250      0.000      0.000 
      41      0.000      0.000      0.400      0.000 
      42      0.000      0.000      0.300      0.000 
      43      0.000      7.250      0.000      0.000 
      44      0.000      7.250      0.000      0.000 
      45      0.000      7.250      0.000      0.000 
      46      0.000      2.030      0.000      0.000 
      47      5.260      0.820      0.000      0.000 
      48      0.000      0.000      0.000      0.000 
      49      0.000      2.030      0.000      0.000 
      50      0.000      0.000      0.000      0.000 
      51      0.000      7.250      0.000      0.000 
      52      0.000      7.250      0.000      0.000 
      53      0.000      7.250      0.000      0.000 
      54      0.000      0.000     -0.100      0.000 
      55      0.000      7.250      0.000      0.000 
      56      0.000      7.250      0.000      0.000 
      57     -0.190     -0.417      0.418      0.000 

Improper Coeffs 

       1     10.500      -1       2 
       2      0.000      -1       2 
       3      0.000      -1       2 
       4      0.000      -1       2 
       5      0.000      -1       2 
       6      2.500      -1       2 
       7      2.500      -1       2 
       8      2.500      -1       2 
       9      2.500      -1       2 
      10      2.500      -1       2 
      11      2.500      -1       2 
      12      0.000      -1       2 
      13      0.000      -1       2 

Atoms 

     1      1      1 0.44560000    1.000  1.00000  0.00000
     2      1      2 -0.55380000    0.019  1.00000  0.00000
     3      1      3 0.44280000   -0.486  1.00000  1.26115
     4      1      4 0.11180000   -2.006  0.99822  1.26934
     5      1      5 -0.43750000    0.226  1.00000  2.25731
     6      1      6 -0.12160000   -2.562  2.42396  1.40537
     7      1      7 -0.95840000   -2.420  0.20065  2.42613
     8      1      8 0.10400000   -2.372  0.51416  0.35603
     9      1      9 -0.15330000   -2.202  3.31802  0.25180
    10      1     10 0.11430000   -3.655  2.38977  1.50340
    11      1     11 0.11430000   -2.199  2.88463  2.33567
    12      1     12 -0.07970000   -1.031  4.06213  0.30184
    13      1     13 -0.08300000   -3.047  3.38849 -0.84822
    14      1     14 0.15550000   -0.368  4.01115  1.16097
    15      1     15 -0.22690000   -0.698  4.89334 -0.76847
    16      1     16 0.14610000   -3.964  2.80719 -0.88793
    17      1     17 -0.22720000   -2.713  4.21674 -1.92036
    18      1     18 0.14850000    0.220  5.47511 -0.72427
    19      1     19 0.35230000   -1.539  4.97145 -1.87791
    20      1     20 0.14750000   -3.375  4.26332 -2.78144
    21      1     21 -1.24740000   -1.202  5.81275 -2.95907
    22      1     22 0.51450000   -1.812  5.87098 -3.76347
    23      1     23 0.51450000   -0.351  6.35868 -2.92843
    24      1     24 0.38850000   -2.118 -0.76517  2.29959
    25      1     25 0.38850000   -3.438  0.17422  2.47544

Bonds 

     1      1      2      1
     2      2      3      2
     3      3      4      3
     4      4      5      3
     5      5      6      4
     6      6      7      4
     7      7      8      4
     8      8      9      6
     9      9     10      6
    10     10     11      6
    11     11     12      9
    12     12     13      9
    13     13     14     12
    14     14     15     12
    15     15     16     13
    16     16     17     13
    17     17     18     15
    18     18     19     15
    19     19     20     17
    20     20     21     19
    21     21     22     21
    22     22     23     21
    23     23     24      7
    24     24     25      7
    25     25     19     17

Angles 

     1      1      1      2      3
     2      2      2      3      4
     3      3      2      3      5
     4      4      3      4      6
     5      5      3      4      7
     6      6      3      4      8
     7      7      4      6      9
     8      8      4      6     10
     9      9      4      6     11
    10     10      6      9     12
    11     11      6      9     13
    12     12      9     12     14
    13     13      9     12     15
    14     14      9     13     16
    15     15      9     13     17
    16     16     12     15     18
    17     17     12     15     19
    18     18     13     17     20
    19     19     15     19     21
    20     20     19     21     22
    21     21     19     21     23
    22     22      4      7     24
    23     23      4      7     25
    24     24     18     15     19
    25     25      7      4      8
    26     26     12      9     13
    27     27     22     21     23
    28     28      6      4      7
    29     29     10      6     11
    30     30      4      3      5
    31     31     14     12     15
    32     32     16     13     17
    33     33      6      4      8
    34     34      9      6     10
    35     35      9      6     11
    36     36     13     17     19
    37     37     15     19     17
    38     38     24      7     25
    39     39     19     17     20
    40     40     17     19     21

Dihedrals

     1      1      4      3      2      1 
     2      2      6      4      3      2 
     3      3      9      6      4      3 
     4      4     12      9      6      4 
     5      5     14     12      9      6 
     6      6     16     13      9      6 
     7      7     18     15     12      9 
     8      8     22     21     19     15 
     9      9     24      7      4      3 
    10     10     15     19     17     13 
    11     11      7      4      3      5 
    12     12     13      9      6     10 
    13     13     12      9      6     10 
    14     14     14     12      9     13 
    15     15     19     15     12      9 
    16     16      5      3      2      1 
    17     17     17     19     15     12 
    18     18     15     12      9      6 
    19     19     23     21     19     15 
    20     20     21     19     15     12 
    21     21      8      4      3      2 
    22     22     11      6      4      7 
    23     23     10      6      4      8 
    24     24     20     17     13     16 
    25     25      8      4      3      5 
    26     26     10      6      4      3 
    27     27     21     19     17     13 
    28     28     19     15     12     14 
    29     29     13      9      6     11 
    30     30     17     13      9      6 
    31     31     25      7      4      6 
    32     32     16     13      9     12 
    33     33     25      7      4      8 
    34     34     20     17     13      9 
    35     35     13      9      6      4 
    36     36     24      7      4      6 
    37     37      9      6      4      8 
    38     38      9      6      4      7 
    39     39     10      6      4      7 
    40     40     20     17     19     15 
    41     41     24      7      4      8 
    42     42     11      6      4      8 
    43     43     19     17     13     16 
    44     44     21     19     17     20 
    45     45     18     15     19     17 
    46     46     23     21     19     17 
    47     47      7      4      3      2 
    48     48     12      9      6     11 
    49     49     22     21     19     17 
    50     50      6      4      3      5 
    51     51     17     13      9     12 
    52     52     21     19     15     18 
    53     53     19     17     13      9 
    54     54     11      6      4      3 
    55     55     18     15     12     14 
    56     56     15     12      9     13 
    57     57     25      7      4      3 

Impropers

     1      1      3      2      4      5 
     2      2      4      3      6      7 
     3      3      4      3      6      8 
     4      4      6      9     10      4 
     5      5      6      9     11      4 
     6      6      9     12     13      6 
     7      7     12      9     14     15 
     8      8     13     17      9     16 
     9      9     15     18     19     12 
    10     10     17     19     20     13 
    11     11     19     17     21     15 
    12     12     21     19     22     23 
    13     13      7     25      4     24 
