LAMMPS data file Created by LigParGen - (Written by Leela S. Dodda)

      19 atoms
      20 bonds
      33 angles
      46 dihedrals
      11 impropers
 
      19 atom types
      20 bond types
      33 angle types
      46 dihedral types
      11 improper types
 
   -4.146650    45.853350 xlo xhi
    0.105970    50.105970 ylo yhi
   -2.098410    47.901590 zlo zhi

Masses

       1     14.007  
       2     12.011  
       3     12.011  
       4     12.011  
       5     12.011  
       6     12.011  
       7     12.011  
       8     12.011  
       9     12.011  
      10     12.011  
      11      1.008  
      12      1.008  
      13      1.008  
      14      1.008  
      15      1.008  
      16      1.008  
      17      1.008  
      18      1.008  
      19      1.008  

Pair Coeffs 

       1      0.170  3.2500000 
       2      0.080  3.5000000 
       3      0.070  3.5500000 
       4      0.070  3.5500000 
       5      0.070  3.5500000 
       6      0.070  3.5500000 
       7      0.070  3.5500000 
       8      0.070  3.5500000 
       9      0.070  3.5500000 
      10      0.066  3.5000000 
      11      0.000  0.0000000 
      12      0.030  2.4200000 
      13      0.030  2.4200000 
      14      0.030  2.4200000 
      15      0.030  2.4200000 
      16      0.030  2.4200000 
      17      0.030  2.5000000 
      18      0.030  2.5000000 
      19      0.030  2.5000000 

Bond Coeffs 

       1   436.0000     1.3740 
       2   469.0000     1.4240 
       3   469.0000     1.4240 
       4   469.0000     1.4040 
       5   469.0000     1.4000 
       6   427.0000     1.3810 
       7   469.0000     1.4000 
       8   469.0000     1.4000 
       9   317.0000     1.5040 
      10   434.0000     1.0100 
      11   367.0000     1.0800 
      12   367.0000     1.0800 
      13   367.0000     1.0800 
      14   367.0000     1.0800 
      15   367.0000     1.0800 
      16   340.0000     1.0900 
      17   340.0000     1.0900 
      18   340.0000     1.0900 
      19   546.0000     1.3670 
      20   469.0000     1.4000 

Angle Coeffs 

       1     70.000    107.700
       2     70.000    107.300
       3     70.000    108.700
       4     63.000    120.000
       5     70.000    109.800
       6     63.000    120.000
       7     63.000    120.000
       8     70.000    121.600
       9     30.000    125.800
      10     35.000    127.500
      11     35.000    120.000
      12     35.000    120.000
      13     35.000    120.000
      14     35.000    120.000
      15     35.000    109.500
      16     35.000    109.500
      17     35.000    109.500
      18     70.000    107.300
      19     63.000    120.000
      20     33.000    107.800
      21     35.000    120.000
      22     63.000    120.000
      23     35.000    120.000
      24     33.000    107.800
      25     70.000    107.700
      26     85.000    134.900
      27     63.000    120.000
      28     35.000    120.000
      29     35.000    120.000
      30     33.000    107.800
      31     70.000    132.100
      32     35.000    125.700
      33     35.000    120.000

Dihedral Coeffs  

       1      0.000      2.170      0.000      0.000 
       2      0.000      7.250      0.000      0.000 
       3      0.000      7.000      0.000      0.000 
       4      0.000      7.250      0.000      0.000 
       5      0.000      0.000      0.000      0.000 
       6      0.000      7.250      0.000      0.000 
       7      0.000      7.250      0.000      0.000 
       8      0.000      5.000      0.000      0.000 
       9      0.000      2.170      0.000      0.000 
      10      0.000      0.000      0.000      0.000 
      11      0.000      7.250      0.000      0.000 
      12      0.000      5.000      0.000      0.000 
      13      0.000      7.250      0.000      0.000 
      14      0.000      0.000      0.000      0.000 
      15      0.000      7.250      0.000      0.000 
      16      0.000      7.250      0.000      0.000 
      17      0.000      7.250      0.000      0.000 
      18      0.000      7.250      0.000      0.000 
      19      0.000      0.000      0.000      0.000 
      20      0.000      5.000      0.000      0.000 
      21      0.000      7.250      0.000      0.000 
      22      0.000      7.250      0.000      0.000 
      23      0.000      7.250      0.000      0.000 
      24      0.000      7.250      0.000      0.000 
      25      0.000      2.170      0.000      0.000 
      26      0.000      7.250      0.000      0.000 
      27      0.000      7.250      0.000      0.000 
      28      0.000      2.170      0.000      0.000 
      29      0.000      5.000      0.000      0.000 
      30      0.000      0.000      0.000      0.000 
      31      0.000      7.000      0.000      0.000 
      32      0.000      7.250      0.000      0.000 
      33      0.000      0.000      0.000      0.000 
      34      0.000      7.250      0.000      0.000 
      35      0.000      2.170      0.000      0.000 
      36      0.000      7.250      0.000      0.000 
      37      0.000      7.250      0.000      0.000 
      38      0.000      7.250      0.000      0.000 
      39      0.000      7.250      0.000      0.000 
      40      0.000      7.250      0.000      0.000 
      41      0.000      5.000      0.000      0.000 
      42      0.000      5.000      0.000      0.000 
      43      0.000      7.250      0.000      0.000 
      44      0.000      7.250      0.000      0.000 
      45      0.000      7.250      0.000      0.000 
      46      0.000      7.250      0.000      0.000 

Improper Coeffs 

       1      2.500      -1       2 
       2      2.500      -1       2 
       3      2.500      -1       2 
       4      2.500      -1       2 
       5      2.500      -1       2 
       6      2.500      -1       2 
       7      2.500      -1       2 
       8      2.500      -1       2 
       9      2.500      -1       2 
      10      0.000      -1       2 
      11      0.000      -1       2 

Atoms 

     1      1      1 -0.61710000    1.000  1.00000  0.00000
     2      1      2 0.10010000   -0.376  1.00000  0.00000
     3      1      3 -0.08510000   -0.787  1.00000  1.33539
     4      1      4 -0.22880000    0.391  1.00000  2.13363
     5      1      5 -0.16600000   -1.279  1.00135 -1.06885
     6      1      6 -0.09370000   -2.167  1.00156  1.61989
     7      1      7 0.06340000    1.471  1.00000  1.28505
     8      1      8 -0.12760000   -2.643  0.99940 -0.76268
     9      1      9 -0.18010000   -3.081  1.00306  0.56090
    10      1     10 -0.17210000    2.986  0.99832  1.56515
    11      1     11 0.43950000    1.578  0.99895 -0.82993
    12      1     12 0.17370000    0.442  1.00109  3.21309
    13      1     13 0.14760000   -0.937  1.00499 -2.09841
    14      1     14 0.14960000   -2.521  1.00043  2.64666
    15      1     15 0.14540000   -3.370  0.99615 -1.57062
    16      1     16 0.14610000   -4.147  1.00593  0.77425
    17      1     17 0.10170000    3.156  0.99989  2.64127
    18      1     18 0.10170000    3.434  0.10597  1.12768
    19      1     19 0.10170000    3.437  1.88793  1.12469

Bonds 

     1      1      2      1
     2      2      3      2
     3      3      4      3
     4      4      5      2
     5      5      6      3
     6      6      7      1
     7      7      8      5
     8      8      9      6
     9      9     10      7
    10     10     11      1
    11     11     12      4
    12     12     13      5
    13     13     14      6
    14     14     15      8
    15     15     16      9
    16     16     17     10
    17     17     18     10
    18     18     19     10
    19     19      7      4
    20     20      9      8

Angles 

     1      1      1      2      3
     2      2      2      3      4
     3      3      1      2      5
     4      4      2      3      6
     5      5      2      1      7
     6      6      2      5      8
     7      7      3      6      9
     8      8      1      7     10
     9      9      2      1     11
    10     10      3      4     12
    11     11      2      5     13
    12     12      3      6     14
    13     13      5      8     15
    14     14      6      9     16
    15     15      7     10     17
    16     16      7     10     18
    17     17      7     10     19
    18     18      3      4      7
    19     19      6      9      8
    20     20     18     10     19
    21     21      9      6     14
    22     22      5      8      9
    23     23      8      5     13
    24     24     17     10     19
    25     25      1      7      4
    26     26      3      2      5
    27     27      4      3      6
    28     28      9      8     15
    29     29      7      1     11
    30     30     17     10     18
    31     31      4      7     10
    32     32      7      4     12
    33     33      8      9     16

Dihedrals

     1      1      4      3      2      1 
     2      2      7      1      2      3 
     3      3      8      5      2      1 
     4      4      9      6      3      2 
     5      5     17     10      7      1 
     6      6      9      8      5      2 
     7      7     14      6      9      8 
     8      8      4      7      1      2 
     9      9      9      6      3      4 
    10     10     18     10      7      1 
    11     11     13      5      8      9 
    12     12     11      1      2      3 
    13     13      7      1      2      5 
    14     14     19     10      7      1 
    15     15     12      4      7     10 
    16     16     12      4      3      2 
    17     17     14      6      3      2 
    18     18     13      5      2      3 
    19     19     18     10      7      4 
    20     20     11      1      7     10 
    21     21     16      9      6     14 
    22     22     12      4      3      6 
    23     23      3      4      7      1 
    24     24     13      5      2      1 
    25     25      7      4      3      6 
    26     26     16      9      8      5 
    27     27     15      8      9      6 
    28     28      6      3      2      1 
    29     29     11      1      2      5 
    30     30     19     10      7      4 
    31     31      8      5      2      3 
    32     32     16      9      8     15 
    33     33     17     10      7      4 
    34     34     15      8      5     13 
    35     35      7      4      3      2 
    36     36      5      2      3      4 
    37     37      8      9      6      3 
    38     38     16      9      6      3 
    39     39      6      3      2      5 
    40     40     14      6      3      4 
    41     41     10      7      1      2 
    42     42     11      1      7      4 
    43     43     12      4      7      1 
    44     44     10      7      4      3 
    45     45     15      8      5      2 
    46     46      6      9      8      5 

Impropers

     1      1      2      1      3      5 
     2      2      3      2      4      6 
     3      3      7      1     10      4 
     4      4      1      2     11      7 
     5      5      4      3     12      7 
     6      6      5      8     13      2 
     7      7      6      9      3     14 
     8      8      8      9      5     15 
     9      9      9      8      6     16 
    10     10     10     17     18      7 
    11     11     10     17     19      7 
